<?xml version="1.0" encoding="UTF-8"?>

<!-- generated on 2022-01-08 04:12:19 by Eclipse SUMO GUI Version 1.11.0
<configuration xmlns:xsi="http://www.w3.org/2001/XMLSchema-instance" xsi:noNamespaceSchemaLocation="http://sumo.dlr.de/xsd/sumoConfiguration.xsd">

    <input>
        <net-file value="data/highway1226.net.xml"/>
        <route-files value="data/highway.rou.xml"/>
    </input>

    <output>
        <tripinfo-output value="tripinfo.xml"/>
    </output>

    <time>
        <step-length value="0.1"/>
    </time>

    <traci_server>
        <remote-port value="54673"/>
    </traci_server>

    <gui_only>
        <gui-settings-file value="data/highway.view.xml"/>
        <tracker-interval value="0.1"/>
    </gui_only>

</configuration>
-->

<tripinfos xmlns:xsi="http://www.w3.org/2001/XMLSchema-instance" xsi:noNamespaceSchemaLocation="http://sumo.dlr.de/xsd/tripinfo_file.xsd">
    <tripinfo id="normal.0" depart="0.00" departLane="entry_0" departPos="5.10" departSpeed="30.00" departDelay="0.00" arrival="66.90" arrivalLane="exit_0" arrivalPos="100.00" arrivalSpeed="29.90" duration="66.90" routeLength="1995.50" waitingTime="0.00" waitingCount="0" stopTime="0.00" timeLoss="0.30" rerouteNo="1" devices="tripinfo_normal.0 routing_normal.0" vType="normal_car" speedFactor="2.16" vaporized=""/>
    <tripinfo id="normal.1" depart="0.50" departLane="entry_1" departPos="5.10" departSpeed="30.00" departDelay="0.00" arrival="67.30" arrivalLane="exit_1" arrivalPos="100.00" arrivalSpeed="29.79" duration="66.80" routeLength="1995.50" waitingTime="0.00" waitingCount="0" stopTime="0.00" timeLoss="0.28" rerouteNo="1" devices="tripinfo_normal.1 routing_normal.1" vType="normal_car" speedFactor="2.16" vaporized=""/>
    <tripinfo id="normal.2" depart="1.00" departLane="entry_2" departPos="5.10" departSpeed="30.00" departDelay="0.00" arrival="67.80" arrivalLane="exit_2" arrivalPos="100.00" arrivalSpeed="30.00" duration="66.80" routeLength="1995.50" waitingTime="0.00" waitingCount="0" stopTime="0.00" timeLoss="0.27" rerouteNo="1" devices="tripinfo_normal.2 routing_normal.2" vType="normal_car" speedFactor="2.16" vaporized=""/>
    <tripinfo id="normal.3" depart="1.50" departLane="entry_0" departPos="5.10" departSpeed="30.00" departDelay="0.00" arrival="68.40" arrivalLane="exit_0" arrivalPos="100.00" arrivalSpeed="29.74" duration="66.90" routeLength="1995.50" waitingTime="0.00" waitingCount="0" stopTime="0.00" timeLoss="0.30" rerouteNo="1" devices="tripinfo_normal.3 routing_normal.3" vType="normal_car" speedFactor="2.16" vaporized=""/>
    <tripinfo id="normal.4" depart="2.00" departLane="entry_1" departPos="5.10" departSpeed="30.00" departDelay="0.00" arrival="68.80" arrivalLane="exit_1" arrivalPos="100.00" arrivalSpeed="29.85" duration="66.80" routeLength="1995.50" waitingTime="0.00" waitingCount="0" stopTime="0.00" timeLoss="0.29" rerouteNo="1" devices="tripinfo_normal.4 routing_normal.4" vType="normal_car" speedFactor="2.16" vaporized=""/>
    <tripinfo id="normal.5" depart="2.50" departLane="entry_2" departPos="5.10" departSpeed="30.00" departDelay="0.00" arrival="69.30" arrivalLane="exit_2" arrivalPos="100.00" arrivalSpeed="29.84" duration="66.80" routeLength="1995.50" waitingTime="0.00" waitingCount="0" stopTime="0.00" timeLoss="0.28" rerouteNo="1" devices="tripinfo_normal.5 routing_normal.5" vType="normal_car" speedFactor="2.16" vaporized=""/>
    <tripinfo id="normal.6" depart="3.00" departLane="entry_0" departPos="5.10" departSpeed="30.00" departDelay="0.00" arrival="69.90" arrivalLane="exit_0" arrivalPos="100.00" arrivalSpeed="29.77" duration="66.90" routeLength="1995.50" waitingTime="0.00" waitingCount="0" stopTime="0.00" timeLoss="0.29" rerouteNo="1" devices="tripinfo_normal.6 routing_normal.6" vType="normal_car" speedFactor="2.16" vaporized=""/>
    <tripinfo id="normal.7" depart="3.70" departLane="entry_1" departPos="5.10" departSpeed="30.00" departDelay="0.20" arrival="70.50" arrivalLane="exit_1" arrivalPos="100.00" arrivalSpeed="29.80" duration="66.80" routeLength="1995.50" waitingTime="0.00" waitingCount="0" stopTime="0.00" timeLoss="0.28" rerouteNo="1" devices="tripinfo_normal.7 routing_normal.7" vType="normal_car" speedFactor="2.16" vaporized=""/>
    <tripinfo id="normal.8" depart="4.20" departLane="entry_2" departPos="5.10" departSpeed="30.00" departDelay="0.20" arrival="71.00" arrivalLane="exit_2" arrivalPos="100.00" arrivalSpeed="29.86" duration="66.80" routeLength="1995.50" waitingTime="0.00" waitingCount="0" stopTime="0.00" timeLoss="0.28" rerouteNo="1" devices="tripinfo_normal.8 routing_normal.8" vType="normal_car" speedFactor="2.16" vaporized=""/>
    <tripinfo id="normal.9" depart="4.50" departLane="entry_0" departPos="5.10" departSpeed="30.00" departDelay="0.00" arrival="71.40" arrivalLane="exit_0" arrivalPos="100.00" arrivalSpeed="29.97" duration="66.90" routeLength="1995.50" waitingTime="0.00" waitingCount="0" stopTime="0.00" timeLoss="0.29" rerouteNo="1" devices="tripinfo_normal.9 routing_normal.9" vType="normal_car" speedFactor="2.16" vaporized=""/>
    <tripinfo id="normal.10" depart="5.20" departLane="entry_1" departPos="5.10" departSpeed="30.00" departDelay="0.20" arrival="72.00" arrivalLane="exit_1" arrivalPos="100.00" arrivalSpeed="29.86" duration="66.80" routeLength="1995.50" waitingTime="0.00" waitingCount="0" stopTime="0.00" timeLoss="0.28" rerouteNo="1" devices="tripinfo_normal.10 routing_normal.10" vType="normal_car" speedFactor="2.16" vaporized=""/>
    <tripinfo id="normal.11" depart="5.70" departLane="entry_2" departPos="5.10" departSpeed="30.00" departDelay="0.20" arrival="72.60" arrivalLane="exit_2" arrivalPos="100.00" arrivalSpeed="29.87" duration="66.90" routeLength="1995.50" waitingTime="0.00" waitingCount="0" stopTime="0.00" timeLoss="0.30" rerouteNo="1" devices="tripinfo_normal.11 routing_normal.11" vType="normal_car" speedFactor="2.16" vaporized=""/>
    <tripinfo id="normal.12" depart="6.00" departLane="entry_0" departPos="5.10" departSpeed="30.00" departDelay="0.00" arrival="72.80" arrivalLane="exit_0" arrivalPos="100.00" arrivalSpeed="29.90" duration="66.80" routeLength="1995.50" waitingTime="0.00" waitingCount="0" stopTime="0.00" timeLoss="0.28" rerouteNo="1" devices="tripinfo_normal.12 routing_normal.12" vType="normal_car" speedFactor="2.16" vaporized=""/>
    <tripinfo id="normal.13" depart="6.90" departLane="entry_1" departPos="5.10" departSpeed="30.00" departDelay="0.40" arrival="73.80" arrivalLane="exit_1" arrivalPos="100.00" arrivalSpeed="29.88" duration="66.90" routeLength="1995.50" waitingTime="0.00" waitingCount="0" stopTime="0.00" timeLoss="0.30" rerouteNo="1" devices="tripinfo_normal.13 routing_normal.13" vType="normal_car" speedFactor="2.16" vaporized=""/>
    <tripinfo id="normal.14" depart="7.30" departLane="entry_0" departPos="5.10" departSpeed="30.00" departDelay="0.30" arrival="74.20" arrivalLane="exit_0" arrivalPos="100.00" arrivalSpeed="29.91" duration="66.90" routeLength="1995.50" waitingTime="0.00" waitingCount="0" stopTime="0.00" timeLoss="0.29" rerouteNo="1" devices="tripinfo_normal.14 routing_normal.14" vType="normal_car" speedFactor="2.16" vaporized=""/>
    <tripinfo id="normal.15" depart="7.50" departLane="entry_2" departPos="5.10" departSpeed="30.00" departDelay="0.00" arrival="74.40" arrivalLane="exit_2" arrivalPos="100.00" arrivalSpeed="29.89" duration="66.90" routeLength="1995.50" waitingTime="0.00" waitingCount="0" stopTime="0.00" timeLoss="0.30" rerouteNo="1" devices="tripinfo_normal.15 routing_normal.15" vType="normal_car" speedFactor="2.16" vaporized=""/>
    <tripinfo id="normal.16" depart="8.40" departLane="entry_1" departPos="5.10" departSpeed="30.00" departDelay="0.40" arrival="75.30" arrivalLane="exit_1" arrivalPos="100.00" arrivalSpeed="29.87" duration="66.90" routeLength="1995.50" waitingTime="0.00" waitingCount="0" stopTime="0.00" timeLoss="0.30" rerouteNo="1" devices="tripinfo_normal.16 routing_normal.16" vType="normal_car" speedFactor="2.16" vaporized=""/>
    <tripinfo id="normal.17" depart="8.60" departLane="entry_0" departPos="5.10" departSpeed="30.00" departDelay="0.10" arrival="75.50" arrivalLane="exit_0" arrivalPos="100.00" arrivalSpeed="29.81" duration="66.90" routeLength="1995.50" waitingTime="0.00" waitingCount="0" stopTime="0.00" timeLoss="0.30" rerouteNo="1" devices="tripinfo_normal.17 routing_normal.17" vType="normal_car" speedFactor="2.16" vaporized=""/>
    <tripinfo id="normal.18" depart="9.00" departLane="entry_2" departPos="5.10" departSpeed="30.00" departDelay="0.00" arrival="75.90" arrivalLane="exit_2" arrivalPos="100.00" arrivalSpeed="29.79" duration="66.90" routeLength="1995.50" waitingTime="0.00" waitingCount="0" stopTime="0.00" timeLoss="0.29" rerouteNo="1" devices="tripinfo_normal.18 routing_normal.18" vType="normal_car" speedFactor="2.16" vaporized=""/>
    <tripinfo id="normal.19" depart="9.90" departLane="entry_0" departPos="5.10" departSpeed="30.00" departDelay="0.40" arrival="76.80" arrivalLane="exit_0" arrivalPos="100.00" arrivalSpeed="29.94" duration="66.90" routeLength="1995.50" waitingTime="0.00" waitingCount="0" stopTime="0.00" timeLoss="0.30" rerouteNo="1" devices="tripinfo_normal.19 routing_normal.19" vType="normal_car" speedFactor="2.16" vaporized=""/>
    <tripinfo id="normal.20" depart="10.00" departLane="entry_1" departPos="5.10" departSpeed="30.00" departDelay="0.00" arrival="76.90" arrivalLane="exit_1" arrivalPos="100.00" arrivalSpeed="29.95" duration="66.90" routeLength="1995.50" waitingTime="0.00" waitingCount="0" stopTime="0.00" timeLoss="0.30" rerouteNo="1" devices="tripinfo_normal.20 routing_normal.20" vType="normal_car" speedFactor="2.16" vaporized=""/>
    <tripinfo id="normal.21" depart="10.70" departLane="entry_2" departPos="5.10" departSpeed="30.00" departDelay="0.20" arrival="77.60" arrivalLane="exit_2" arrivalPos="100.00" arrivalSpeed="29.97" duration="66.90" routeLength="1995.50" waitingTime="0.00" waitingCount="0" stopTime="0.00" timeLoss="0.30" rerouteNo="1" devices="tripinfo_normal.21 routing_normal.21" vType="normal_car" speedFactor="2.16" vaporized=""/>
    <tripinfo id="normal.22" depart="11.20" departLane="entry_0" departPos="5.10" departSpeed="30.00" departDelay="0.20" arrival="78.00" arrivalLane="exit_0" arrivalPos="100.00" arrivalSpeed="29.84" duration="66.80" routeLength="1995.50" waitingTime="0.00" waitingCount="0" stopTime="0.00" timeLoss="0.28" rerouteNo="1" devices="tripinfo_normal.22 routing_normal.22" vType="normal_car" speedFactor="2.16" vaporized=""/>
    <tripinfo id="normal.23" depart="11.50" departLane="entry_1" departPos="5.10" departSpeed="30.00" departDelay="0.00" arrival="78.40" arrivalLane="exit_1" arrivalPos="100.00" arrivalSpeed="29.79" duration="66.90" routeLength="1995.50" waitingTime="0.00" waitingCount="0" stopTime="0.00" timeLoss="0.29" rerouteNo="1" devices="tripinfo_normal.23 routing_normal.23" vType="normal_car" speedFactor="2.16" vaporized=""/>
    <tripinfo id="normal.24" depart="12.20" departLane="entry_2" departPos="5.10" departSpeed="30.00" departDelay="0.20" arrival="79.10" arrivalLane="exit_2" arrivalPos="100.00" arrivalSpeed="29.97" duration="66.90" routeLength="1995.50" waitingTime="0.00" waitingCount="0" stopTime="0.00" timeLoss="0.29" rerouteNo="1" devices="tripinfo_normal.24 routing_normal.24" vType="normal_car" speedFactor="2.16" vaporized=""/>
    <tripinfo id="normal.25" depart="12.50" departLane="entry_0" departPos="5.10" departSpeed="30.00" departDelay="0.00" arrival="79.40" arrivalLane="exit_0" arrivalPos="100.00" arrivalSpeed="29.80" duration="66.90" routeLength="1995.50" waitingTime="0.00" waitingCount="0" stopTime="0.00" timeLoss="0.29" rerouteNo="1" devices="tripinfo_normal.25 routing_normal.25" vType="normal_car" speedFactor="2.16" vaporized=""/>
    <tripinfo id="normal.26" depart="13.00" departLane="entry_1" departPos="5.10" departSpeed="30.00" departDelay="0.00" arrival="79.90" arrivalLane="exit_1" arrivalPos="100.00" arrivalSpeed="29.81" duration="66.90" routeLength="1995.50" waitingTime="0.00" waitingCount="0" stopTime="0.00" timeLoss="0.29" rerouteNo="1" devices="tripinfo_normal.26 routing_normal.26" vType="normal_car" speedFactor="2.16" vaporized=""/>
    <tripinfo id="normal.27" depart="13.80" departLane="entry_0" departPos="5.10" departSpeed="30.00" departDelay="0.30" arrival="80.70" arrivalLane="exit_0" arrivalPos="100.00" arrivalSpeed="29.78" duration="66.90" routeLength="1995.50" waitingTime="0.00" waitingCount="0" stopTime="0.00" timeLoss="0.29" rerouteNo="1" devices="tripinfo_normal.27 routing_normal.27" vType="normal_car" speedFactor="2.16" vaporized=""/>
    <tripinfo id="normal.28" depart="14.00" departLane="entry_2" departPos="5.10" departSpeed="30.00" departDelay="0.00" arrival="80.80" arrivalLane="exit_2" arrivalPos="100.00" arrivalSpeed="29.89" duration="66.80" routeLength="1995.50" waitingTime="0.00" waitingCount="0" stopTime="0.00" timeLoss="0.28" rerouteNo="1" devices="tripinfo_normal.28 routing_normal.28" vType="normal_car" speedFactor="2.16" vaporized=""/>
    <tripinfo id="normal.29" depart="14.50" departLane="entry_1" departPos="5.10" departSpeed="30.00" departDelay="0.00" arrival="81.40" arrivalLane="exit_1" arrivalPos="100.00" arrivalSpeed="29.89" duration="66.90" routeLength="1995.50" waitingTime="0.00" waitingCount="0" stopTime="0.00" timeLoss="0.30" rerouteNo="1" devices="tripinfo_normal.29 routing_normal.29" vType="normal_car" speedFactor="2.16" vaporized=""/>
    <tripinfo id="normal.30" depart="15.10" departLane="entry_0" departPos="5.10" departSpeed="30.00" departDelay="0.10" arrival="81.90" arrivalLane="exit_0" arrivalPos="100.00" arrivalSpeed="29.77" duration="66.80" routeLength="1995.50" waitingTime="0.00" waitingCount="0" stopTime="0.00" timeLoss="0.27" rerouteNo="1" devices="tripinfo_normal.30 routing_normal.30" vType="normal_car" speedFactor="2.16" vaporized=""/>
    <tripinfo id="normal.31" depart="15.50" departLane="entry_2" departPos="5.10" departSpeed="30.00" departDelay="0.00" arrival="82.30" arrivalLane="exit_2" arrivalPos="100.00" arrivalSpeed="29.87" duration="66.80" routeLength="1995.50" waitingTime="0.00" waitingCount="0" stopTime="0.00" timeLoss="0.28" rerouteNo="1" devices="tripinfo_normal.31 routing_normal.31" vType="normal_car" speedFactor="2.16" vaporized=""/>
    <tripinfo id="normal.32" depart="16.20" departLane="entry_1" departPos="5.10" departSpeed="30.00" departDelay="0.20" arrival="83.00" arrivalLane="exit_1" arrivalPos="100.00" arrivalSpeed="29.79" duration="66.80" routeLength="1995.50" waitingTime="0.00" waitingCount="0" stopTime="0.00" timeLoss="0.28" rerouteNo="1" devices="tripinfo_normal.32 routing_normal.32" vType="normal_car" speedFactor="2.16" vaporized=""/>
    <tripinfo id="normal.33" depart="16.50" departLane="entry_0" departPos="5.10" departSpeed="30.00" departDelay="0.00" arrival="83.40" arrivalLane="exit_0" arrivalPos="100.00" arrivalSpeed="29.96" duration="66.90" routeLength="1995.50" waitingTime="0.00" waitingCount="0" stopTime="0.00" timeLoss="0.29" rerouteNo="1" devices="tripinfo_normal.33 routing_normal.33" vType="normal_car" speedFactor="2.16" vaporized=""/>
    <tripinfo id="normal.34" depart="17.20" departLane="entry_2" departPos="5.10" departSpeed="30.00" departDelay="0.20" arrival="84.10" arrivalLane="exit_2" arrivalPos="100.00" arrivalSpeed="29.96" duration="66.90" routeLength="1995.50" waitingTime="0.00" waitingCount="0" stopTime="0.00" timeLoss="0.30" rerouteNo="1" devices="tripinfo_normal.34 routing_normal.34" vType="normal_car" speedFactor="2.16" vaporized=""/>
    <tripinfo id="normal.35" depart="17.70" departLane="entry_1" departPos="5.10" departSpeed="30.00" departDelay="0.20" arrival="84.60" arrivalLane="exit_1" arrivalPos="100.00" arrivalSpeed="29.94" duration="66.90" routeLength="1995.50" waitingTime="0.00" waitingCount="0" stopTime="0.00" timeLoss="0.29" rerouteNo="1" devices="tripinfo_normal.35 routing_normal.35" vType="normal_car" speedFactor="2.16" vaporized=""/>
    <tripinfo id="normal.36" depart="18.00" departLane="entry_0" departPos="5.10" departSpeed="30.00" departDelay="0.00" arrival="84.90" arrivalLane="exit_0" arrivalPos="100.00" arrivalSpeed="29.94" duration="66.90" routeLength="1995.50" waitingTime="0.00" waitingCount="0" stopTime="0.00" timeLoss="0.29" rerouteNo="1" devices="tripinfo_normal.36 routing_normal.36" vType="normal_car" speedFactor="2.16" vaporized=""/>
    <tripinfo id="normal.37" depart="18.70" departLane="entry_2" departPos="5.10" departSpeed="30.00" departDelay="0.20" arrival="85.60" arrivalLane="exit_2" arrivalPos="100.00" arrivalSpeed="29.98" duration="66.90" routeLength="1995.50" waitingTime="0.00" waitingCount="0" stopTime="0.00" timeLoss="0.30" rerouteNo="1" devices="tripinfo_normal.37 routing_normal.37" vType="normal_car" speedFactor="2.16" vaporized=""/>
    <tripinfo id="normal.38" depart="19.30" departLane="entry_0" departPos="5.10" departSpeed="30.00" departDelay="0.30" arrival="86.20" arrivalLane="exit_0" arrivalPos="100.00" arrivalSpeed="29.92" duration="66.90" routeLength="1995.50" waitingTime="0.00" waitingCount="0" stopTime="0.00" timeLoss="0.29" rerouteNo="1" devices="tripinfo_normal.38 routing_normal.38" vType="normal_car" speedFactor="2.16" vaporized=""/>
    <tripinfo id="normal.39" depart="19.50" departLane="entry_1" departPos="5.10" departSpeed="30.00" departDelay="0.00" arrival="86.40" arrivalLane="exit_1" arrivalPos="100.00" arrivalSpeed="29.95" duration="66.90" routeLength="1995.50" waitingTime="0.00" waitingCount="0" stopTime="0.00" timeLoss="0.29" rerouteNo="1" devices="tripinfo_normal.39 routing_normal.39" vType="normal_car" speedFactor="2.16" vaporized=""/>
    <tripinfo id="normal.40" depart="20.40" departLane="entry_2" departPos="5.10" departSpeed="30.00" departDelay="0.40" arrival="87.20" arrivalLane="exit_2" arrivalPos="100.00" arrivalSpeed="29.79" duration="66.80" routeLength="1995.50" waitingTime="0.00" waitingCount="0" stopTime="0.00" timeLoss="0.29" rerouteNo="1" devices="tripinfo_normal.40 routing_normal.40" vType="normal_car" speedFactor="2.16" vaporized=""/>
    <tripinfo id="normal.41" depart="20.60" departLane="entry_0" departPos="5.10" departSpeed="30.00" departDelay="0.10" arrival="87.50" arrivalLane="exit_0" arrivalPos="100.00" arrivalSpeed="29.94" duration="66.90" routeLength="1995.50" waitingTime="0.00" waitingCount="0" stopTime="0.00" timeLoss="0.29" rerouteNo="1" devices="tripinfo_normal.41 routing_normal.41" vType="normal_car" speedFactor="2.16" vaporized=""/>
    <tripinfo id="normal.42" depart="21.00" departLane="entry_1" departPos="5.10" departSpeed="30.00" departDelay="0.00" arrival="87.90" arrivalLane="exit_1" arrivalPos="100.00" arrivalSpeed="29.88" duration="66.90" routeLength="1995.50" waitingTime="0.00" waitingCount="0" stopTime="0.00" timeLoss="0.29" rerouteNo="1" devices="tripinfo_normal.42 routing_normal.42" vType="normal_car" speedFactor="2.16" vaporized=""/>
    <tripinfo id="normal.43" depart="21.90" departLane="entry_2" departPos="5.10" departSpeed="30.00" departDelay="0.40" arrival="88.70" arrivalLane="exit_2" arrivalPos="100.00" arrivalSpeed="29.75" duration="66.80" routeLength="1995.50" waitingTime="0.00" waitingCount="0" stopTime="0.00" timeLoss="0.28" rerouteNo="1" devices="tripinfo_normal.43 routing_normal.43" vType="normal_car" speedFactor="2.16" vaporized=""/>
    <tripinfo id="normal.44" depart="22.00" departLane="entry_0" departPos="5.10" departSpeed="30.00" departDelay="0.00" arrival="88.90" arrivalLane="exit_0" arrivalPos="100.00" arrivalSpeed="29.87" duration="66.90" routeLength="1995.50" waitingTime="0.00" waitingCount="0" stopTime="0.00" timeLoss="0.30" rerouteNo="1" devices="tripinfo_normal.44 routing_normal.44" vType="normal_car" speedFactor="2.16" vaporized=""/>
    <tripinfo id="normal.45" depart="22.50" departLane="entry_1" departPos="5.10" departSpeed="30.00" departDelay="0.00" arrival="89.40" arrivalLane="exit_1" arrivalPos="100.00" arrivalSpeed="29.79" duration="66.90" routeLength="1995.50" waitingTime="0.00" waitingCount="0" stopTime="0.00" timeLoss="0.29" rerouteNo="1" devices="tripinfo_normal.45 routing_normal.45" vType="normal_car" speedFactor="2.16" vaporized=""/>
    <tripinfo id="normal.46" depart="23.30" departLane="entry_0" departPos="5.10" departSpeed="30.00" departDelay="0.30" arrival="90.10" arrivalLane="exit_0" arrivalPos="100.00" arrivalSpeed="29.95" duration="66.80" routeLength="1995.50" waitingTime="0.00" waitingCount="0" stopTime="0.00" timeLoss="0.29" rerouteNo="1" devices="tripinfo_normal.46 routing_normal.46" vType="normal_car" speedFactor="2.16" vaporized=""/>
    <tripinfo id="normal.47" depart="23.60" departLane="entry_2" departPos="5.10" departSpeed="30.00" departDelay="0.10" arrival="90.50" arrivalLane="exit_2" arrivalPos="100.00" arrivalSpeed="29.76" duration="66.90" routeLength="1995.50" waitingTime="0.00" waitingCount="0" stopTime="0.00" timeLoss="0.30" rerouteNo="1" devices="tripinfo_normal.47 routing_normal.47" vType="normal_car" speedFactor="2.16" vaporized=""/>
    <tripinfo id="normal.48" depart="24.20" departLane="entry_1" departPos="5.10" departSpeed="30.00" departDelay="0.20" arrival="91.00" arrivalLane="exit_1" arrivalPos="100.00" arrivalSpeed="29.95" duration="66.80" routeLength="1995.50" waitingTime="0.00" waitingCount="0" stopTime="0.00" timeLoss="0.29" rerouteNo="1" devices="tripinfo_normal.48 routing_normal.48" vType="normal_car" speedFactor="2.16" vaporized=""/>
    <tripinfo id="normal.49" depart="24.60" departLane="entry_0" departPos="5.10" departSpeed="30.00" departDelay="0.10" arrival="91.40" arrivalLane="exit_0" arrivalPos="100.00" arrivalSpeed="29.95" duration="66.80" routeLength="1995.50" waitingTime="0.00" waitingCount="0" stopTime="0.00" timeLoss="0.28" rerouteNo="1" devices="tripinfo_normal.49 routing_normal.49" vType="normal_car" speedFactor="2.16" vaporized=""/>
    <tripinfo id="normal.50" depart="25.10" departLane="entry_2" departPos="5.10" departSpeed="30.00" departDelay="0.10" arrival="92.00" arrivalLane="exit_2" arrivalPos="100.00" arrivalSpeed="29.75" duration="66.90" routeLength="1995.50" waitingTime="0.00" waitingCount="0" stopTime="0.00" timeLoss="0.29" rerouteNo="1" devices="tripinfo_normal.50 routing_normal.50" vType="normal_car" speedFactor="2.16" vaporized=""/>
    <tripinfo id="normal.51" depart="25.70" departLane="entry_1" departPos="5.10" departSpeed="30.00" departDelay="0.20" arrival="92.60" arrivalLane="exit_1" arrivalPos="100.00" arrivalSpeed="29.88" duration="66.90" routeLength="1995.50" waitingTime="0.00" waitingCount="0" stopTime="0.00" timeLoss="0.29" rerouteNo="1" devices="tripinfo_normal.51 routing_normal.51" vType="normal_car" speedFactor="2.16" vaporized=""/>
    <tripinfo id="normal.52" depart="26.00" departLane="entry_0" departPos="5.10" departSpeed="30.00" departDelay="0.00" arrival="92.90" arrivalLane="exit_0" arrivalPos="100.00" arrivalSpeed="29.95" duration="66.90" routeLength="1995.50" waitingTime="0.00" waitingCount="0" stopTime="0.00" timeLoss="0.29" rerouteNo="1" devices="tripinfo_normal.52 routing_normal.52" vType="normal_car" speedFactor="2.16" vaporized=""/>
    <tripinfo id="normal.53" depart="26.80" departLane="entry_2" departPos="5.10" departSpeed="30.00" departDelay="0.30" arrival="93.70" arrivalLane="exit_2" arrivalPos="100.00" arrivalSpeed="29.83" duration="66.90" routeLength="1995.50" waitingTime="0.00" waitingCount="0" stopTime="0.00" timeLoss="0.29" rerouteNo="1" devices="tripinfo_normal.53 routing_normal.53" vType="normal_car" speedFactor="2.16" vaporized=""/>
    <tripinfo id="normal.54" depart="27.30" departLane="entry_0" departPos="5.10" departSpeed="30.00" departDelay="0.30" arrival="94.20" arrivalLane="exit_0" arrivalPos="100.00" arrivalSpeed="29.86" duration="66.90" routeLength="1995.50" waitingTime="0.00" waitingCount="0" stopTime="0.00" timeLoss="0.30" rerouteNo="1" devices="tripinfo_normal.54 routing_normal.54" vType="normal_car" speedFactor="2.16" vaporized=""/>
    <tripinfo id="normal.55" depart="27.50" departLane="entry_1" departPos="5.10" departSpeed="30.00" departDelay="0.00" arrival="94.40" arrivalLane="exit_1" arrivalPos="100.00" arrivalSpeed="29.96" duration="66.90" routeLength="1995.50" waitingTime="0.00" waitingCount="0" stopTime="0.00" timeLoss="0.29" rerouteNo="1" devices="tripinfo_normal.55 routing_normal.55" vType="normal_car" speedFactor="2.16" vaporized=""/>
    <tripinfo id="normal.56" depart="28.30" departLane="entry_2" departPos="5.10" departSpeed="30.00" departDelay="0.30" arrival="95.20" arrivalLane="exit_2" arrivalPos="100.00" arrivalSpeed="29.89" duration="66.90" routeLength="1995.50" waitingTime="0.00" waitingCount="0" stopTime="0.00" timeLoss="0.29" rerouteNo="1" devices="tripinfo_normal.56 routing_normal.56" vType="normal_car" speedFactor="2.16" vaporized=""/>
    <tripinfo id="normal.57" depart="28.60" departLane="entry_0" departPos="5.10" departSpeed="30.00" departDelay="0.10" arrival="95.40" arrivalLane="exit_0" arrivalPos="100.00" arrivalSpeed="29.84" duration="66.80" routeLength="1995.50" waitingTime="0.00" waitingCount="0" stopTime="0.00" timeLoss="0.28" rerouteNo="1" devices="tripinfo_normal.57 routing_normal.57" vType="normal_car" speedFactor="2.16" vaporized=""/>
    <tripinfo id="normal.58" depart="29.00" departLane="entry_1" departPos="5.10" departSpeed="30.00" departDelay="0.00" arrival="95.80" arrivalLane="exit_1" arrivalPos="100.00" arrivalSpeed="29.94" duration="66.80" routeLength="1995.50" waitingTime="0.00" waitingCount="0" stopTime="0.00" timeLoss="0.29" rerouteNo="1" devices="tripinfo_normal.58 routing_normal.58" vType="normal_car" speedFactor="2.16" vaporized=""/>
    <tripinfo id="normal.59" depart="29.90" departLane="entry_0" departPos="5.10" departSpeed="30.00" departDelay="0.40" arrival="96.80" arrivalLane="exit_0" arrivalPos="100.00" arrivalSpeed="29.95" duration="66.90" routeLength="1995.50" waitingTime="0.00" waitingCount="0" stopTime="0.00" timeLoss="0.29" rerouteNo="1" devices="tripinfo_normal.59 routing_normal.59" vType="normal_car" speedFactor="2.16" vaporized=""/>
    <tripinfo id="normal.60" depart="30.00" departLane="entry_2" departPos="5.10" departSpeed="30.00" departDelay="0.00" arrival="96.90" arrivalLane="exit_2" arrivalPos="100.00" arrivalSpeed="29.97" duration="66.90" routeLength="1995.50" waitingTime="0.00" waitingCount="0" stopTime="0.00" timeLoss="0.29" rerouteNo="1" devices="tripinfo_normal.60 routing_normal.60" vType="normal_car" speedFactor="2.16" vaporized=""/>
    <tripinfo id="normal.61" depart="30.50" departLane="entry_1" departPos="5.10" departSpeed="30.00" departDelay="0.00" arrival="97.30" arrivalLane="exit_1" arrivalPos="100.00" arrivalSpeed="29.94" duration="66.80" routeLength="1995.50" waitingTime="0.00" waitingCount="0" stopTime="0.00" timeLoss="0.28" rerouteNo="1" devices="tripinfo_normal.61 routing_normal.61" vType="normal_car" speedFactor="2.16" vaporized=""/>
    <tripinfo id="normal.62" depart="31.20" departLane="entry_0" departPos="5.10" departSpeed="30.00" departDelay="0.20" arrival="98.00" arrivalLane="exit_0" arrivalPos="100.00" arrivalSpeed="29.92" duration="66.80" routeLength="1995.50" waitingTime="0.00" waitingCount="0" stopTime="0.00" timeLoss="0.29" rerouteNo="1" devices="tripinfo_normal.62 routing_normal.62" vType="normal_car" speedFactor="2.16" vaporized=""/>
    <tripinfo id="normal.63" depart="31.50" departLane="entry_2" departPos="5.10" departSpeed="30.00" departDelay="0.00" arrival="98.30" arrivalLane="exit_2" arrivalPos="100.00" arrivalSpeed="29.75" duration="66.80" routeLength="1995.50" waitingTime="0.00" waitingCount="0" stopTime="0.00" timeLoss="0.28" rerouteNo="1" devices="tripinfo_normal.63 routing_normal.63" vType="normal_car" speedFactor="2.16" vaporized=""/>
    <tripinfo id="normal.64" depart="32.20" departLane="entry_1" departPos="5.10" departSpeed="30.00" departDelay="0.20" arrival="99.10" arrivalLane="exit_1" arrivalPos="100.00" arrivalSpeed="29.99" duration="66.90" routeLength="1995.50" waitingTime="0.00" waitingCount="0" stopTime="0.00" timeLoss="0.29" rerouteNo="1" devices="tripinfo_normal.64 routing_normal.64" vType="normal_car" speedFactor="2.16" vaporized=""/>
    <tripinfo id="normal.65" depart="32.50" departLane="entry_0" departPos="5.10" departSpeed="30.00" departDelay="0.00" arrival="99.40" arrivalLane="exit_0" arrivalPos="100.00" arrivalSpeed="29.98" duration="66.90" routeLength="1995.50" waitingTime="0.00" waitingCount="0" stopTime="0.00" timeLoss="0.29" rerouteNo="1" devices="tripinfo_normal.65 routing_normal.65" vType="normal_car" speedFactor="2.16" vaporized=""/>
    <tripinfo id="normal.66" depart="33.20" departLane="entry_2" departPos="5.10" departSpeed="30.00" departDelay="0.20" arrival="100.10" arrivalLane="exit_2" arrivalPos="100.00" arrivalSpeed="29.90" duration="66.90" routeLength="1995.50" waitingTime="0.00" waitingCount="0" stopTime="0.00" timeLoss="0.30" rerouteNo="1" devices="tripinfo_normal.66 routing_normal.66" vType="normal_car" speedFactor="2.16" vaporized=""/>
    <tripinfo id="normal.67" depart="33.70" departLane="entry_1" departPos="5.10" departSpeed="30.00" departDelay="0.20" arrival="100.50" arrivalLane="exit_1" arrivalPos="100.00" arrivalSpeed="29.94" duration="66.80" routeLength="1995.50" waitingTime="0.00" waitingCount="0" stopTime="0.00" timeLoss="0.29" rerouteNo="1" devices="tripinfo_normal.67 routing_normal.67" vType="normal_car" speedFactor="2.16" vaporized=""/>
    <tripinfo id="normal.68" depart="34.00" departLane="entry_0" departPos="5.10" departSpeed="30.00" departDelay="0.00" arrival="100.90" arrivalLane="exit_0" arrivalPos="100.00" arrivalSpeed="29.96" duration="66.90" routeLength="1995.50" waitingTime="0.00" waitingCount="0" stopTime="0.00" timeLoss="0.29" rerouteNo="1" devices="tripinfo_normal.68 routing_normal.68" vType="normal_car" speedFactor="2.16" vaporized=""/>